 variables = dist,cp,cf,yp,it,dz0,dz1,dz2,rz0,rz1,rz2,ue,St
#    dist           Cp          Cf          Y+          It        Delta       Delta*      Theta      Re_delta      Re*       Re_theta       Ue          St
 zone T="cpcf        "
  0.000000E+00  3.1914E-02  0.0000E+00  4.6033E-17  1.0001E+01  7.0200E-02  0.0000E+00  0.0000E+00  7.0200E+04  0.0000E+00  0.0000E+00  1.0000E+00  0.0000E+00
  6.538441E-03  3.1997E-02  1.0438E-19  9.7197E-07  1.0001E+01  0.0000E+00  0.0000E+00  0.0000E+00  0.0000E+00  0.0000E+00  0.0000E+00  0.0000E+00  0.0000E+00
  1.248248E-02  3.2079E-02  1.1346E-19  9.3226E-07  1.0001E+01  0.0000E+00  0.0000E+00  0.0000E+00  0.0000E+00  0.0000E+00  0.0000E+00  0.0000E+00  0.0000E+00
  1.788615E-02  3.2258E-02  0.0000E+00  3.5888E-17  1.0001E+01  0.0000E+00  0.0000E+00  0.0000E+00  0.0000E+00  0.0000E+00  0.0000E+00  0.0000E+00  0.0000E+00
  2.279857E-02  3.2474E-02  0.0000E+00  3.2822E-17  1.0001E+01  0.0000E+00  0.0000E+00  0.0000E+00  0.0000E+00  0.0000E+00  0.0000E+00  0.0000E+00  0.0000E+00
  2.726442E-02  3.2737E-02  0.0000E+00  2.9960E-17  1.0001E+01  0.0000E+00  0.0000E+00  0.0000E+00  0.0000E+00  0.0000E+00  0.0000E+00  0.0000E+00  0.0000E+00
  3.132428E-02  3.3039E-02  0.0000E+00  2.7303E-17  1.0001E+01  0.0000E+00  0.0000E+00  0.0000E+00  0.0000E+00  0.0000E+00  0.0000E+00  0.0000E+00  0.0000E+00
  3.501505E-02  3.3379E-02  1.7874E-19  7.4276E-07  1.0001E+01  0.0000E+00  0.0000E+00  0.0000E+00  0.0000E+00  0.0000E+00  0.0000E+00  0.0000E+00  0.0000E+00
  3.837031E-02  3.3755E-02  1.9665E-19  7.0812E-07  1.0001E+01  0.0000E+00  0.0000E+00  0.0000E+00  0.0000E+00  0.0000E+00  0.0000E+00  0.0000E+00  0.0000E+00
  4.142054E-02  3.4168E-02  2.1662E-19  6.7469E-07  1.0001E+01  0.0000E+00  0.0000E+00  0.0000E+00  0.0000E+00  0.0000E+00  0.0000E+00  0.0000E+00  0.0000E+00
  4.419348E-02  3.4617E-02  0.0000E+00  1.8591E-17  1.0001E+01  0.0000E+00  0.0000E+00  0.0000E+00  0.0000E+00  0.0000E+00  0.0000E+00  0.0000E+00  0.0000E+00
  4.671433E-02  3.5104E-02  0.0000E+00  1.6841E-17  1.0001E+01  0.0000E+00  0.0000E+00  0.0000E+00  0.0000E+00  0.0000E+00  0.0000E+00  0.0000E+00  0.0000E+00
  4.900601E-02  3.5630E-02  0.0000E+00  1.5238E-17  1.0001E+01  0.0000E+00  0.0000E+00  0.0000E+00  0.0000E+00  0.0000E+00  0.0000E+00  0.0000E+00  0.0000E+00
  5.108936E-02  3.6198E-02  0.0000E+00  1.3773E-17  1.0001E+01  0.0000E+00  0.0000E+00  0.0000E+00  0.0000E+00  0.0000E+00  0.0000E+00  0.0000E+00  0.0000E+00
  5.298331E-02  3.6808E-02  0.0000E+00  1.2434E-17  1.0001E+01  0.0000E+00  0.0000E+00  0.0000E+00  0.0000E+00  0.0000E+00  0.0000E+00  0.0000E+00  0.0000E+00
  5.470509E-02  3.7465E-02  0.0000E+00  1.1212E-17  1.0001E+01  0.0000E+00  0.0000E+00  0.0000E+00  0.0000E+00  0.0000E+00  0.0000E+00  0.0000E+00  0.0000E+00
  5.627034E-02  3.8172E-02  0.0000E+00  1.0096E-17  1.0001E+01  0.0000E+00  0.0000E+00  0.0000E+00  0.0000E+00  0.0000E+00  0.0000E+00  0.0000E+00  0.0000E+00
  5.769330E-02  3.8933E-02  0.0000E+00  9.0781E-18  1.0001E+01  0.0000E+00  0.0000E+00  0.0000E+00  0.0000E+00  0.0000E+00  0.0000E+00  0.0000E+00  0.0000E+00
  5.898689E-02  3.9753E-02  0.0000E+00  8.1500E-18  1.0001E+01  0.0000E+00  0.0000E+00  0.0000E+00  0.0000E+00  0.0000E+00  0.0000E+00  0.0000E+00  0.0000E+00
  6.016289E-02  4.0639E-02  0.0000E+00  7.3039E-18  1.0001E+01  0.0000E+00  0.0000E+00  0.0000E+00  0.0000E+00  0.0000E+00  0.0000E+00  0.0000E+00  0.0000E+00
  6.123197E-02  4.1597E-02  0.0000E+00  6.5330E-18  1.0001E+01  0.0000E+00  0.0000E+00  0.0000E+00  0.0000E+00  0.0000E+00  0.0000E+00  0.0000E+00  0.0000E+00
  6.220387E-02  4.2635E-02  0.0000E+00  5.8306E-18  1.0001E+01  0.0000E+00  0.0000E+00  0.0000E+00  0.0000E+00  0.0000E+00  0.0000E+00  0.0000E+00  0.0000E+00
  6.308742E-02  4.3765E-02  0.0000E+00  5.1910E-18  1.0001E+01  0.0000E+00  0.0000E+00  0.0000E+00  0.0000E+00  0.0000E+00  0.0000E+00  0.0000E+00  0.0000E+00
  6.389064E-02  4.4999E-02  0.0000E+00  4.6085E-18  1.0001E+01  0.0000E+00  0.0000E+00  0.0000E+00  0.0000E+00  0.0000E+00  0.0000E+00  0.0000E+00  0.0000E+00
  6.462084E-02  4.6351E-02  0.0000E+00  4.0782E-18  1.0001E+01  0.0000E+00  0.0000E+00  0.0000E+00  0.0000E+00  0.0000E+00  0.0000E+00  0.0000E+00  0.0000E+00
  6.528466E-02  4.7841E-02  0.0000E+00  3.5956E-18  1.0001E+01  0.0000E+00  0.0000E+00  0.0000E+00  0.0000E+00  0.0000E+00  0.0000E+00  0.0000E+00  0.0000E+00
  6.588813E-02  4.9493E-02  0.0000E+00  3.1564E-18  1.0001E+01  0.0000E+00  0.0000E+00  0.0000E+00  0.0000E+00  0.0000E+00  0.0000E+00  0.0000E+00  0.0000E+00
  6.643674E-02  5.1337E-02  0.0000E+00  2.7568E-18  1.0001E+01  0.0000E+00  0.0000E+00  0.0000E+00  0.0000E+00  0.0000E+00  0.0000E+00  0.0000E+00  0.0000E+00
  6.693548E-02  5.3414E-02  0.0000E+00  2.3933E-18  1.0001E+01  0.0000E+00  0.0000E+00  0.0000E+00  0.0000E+00  0.0000E+00  0.0000E+00  0.0000E+00  0.0000E+00
  6.738887E-02  5.5778E-02  0.0000E+00  2.0626E-18  1.0001E+01  0.0000E+00  0.0000E+00  0.0000E+00  0.0000E+00  0.0000E+00  0.0000E+00  0.0000E+00  0.0000E+00
  6.780105E-02  5.8503E-02  0.0000E+00  1.7614E-18  1.0001E+01  0.0000E+00  0.0000E+00  0.0000E+00  0.0000E+00  0.0000E+00  0.0000E+00  0.0000E+00  0.0000E+00
  6.817576E-02  6.1694E-02  0.0000E+00  1.4872E-18  1.0001E+01  2.0244E-03 -8.0881E-13 -8.0881E-13  1.9942E+03 -7.9673E-07 -7.9673E-07  9.8507E-01  0.0000E+00
  6.851641E-02  6.5524E-02  0.0000E+00  1.2376E-18  1.0001E+01  0.0000E+00  0.0000E+00  0.0000E+00  0.0000E+00  0.0000E+00  0.0000E+00  0.0000E+00  0.0000E+00
  6.882608E-02  7.0243E-02  0.0000E+00  1.0102E-18  1.0001E+01  0.0000E+00  0.0000E+00  0.0000E+00  0.0000E+00  0.0000E+00  0.0000E+00  0.0000E+00  0.0000E+00
  6.910761E-02  7.6174E-02  0.0000E+00  8.0334E-19  1.0001E+01  1.1033E-03  2.8163E-09  2.8145E-09  1.0795E+03  2.7555E-03  2.7538E-03  9.7842E-01  0.0000E+00
  6.936354E-02  8.2740E-02  0.0000E+00  6.1500E-19  1.0001E+01  8.3738E-04 -2.9461E-10 -2.9471E-10  8.1605E+02 -2.8711E-04 -2.8720E-04  9.7452E-01  0.0000E+00
  6.959620E-02  9.4688E-02  4.2287E-18  1.5270E-07  1.0001E+01  6.0520E-04 -1.0094E-08 -1.0184E-08  5.8739E+02 -9.7968E-03 -9.8845E-03  9.7058E-01  0.0000E+00
  6.980772E-02  1.2753E-01  2.4500E-18  2.0062E-07  1.0001E+01  3.9462E-04 -2.7953E-08 -2.8424E-08  3.8018E+02 -2.6930E-02 -2.7384E-02  9.6340E-01  0.0000E+00
  7.000000E-02  1.8844E-01  0.0000E+00  1.8240E-18  1.0001E+01  2.1371E-04  2.0494E-07  1.9375E-07  2.0480E+02  1.9639E-01  1.8567E-01  9.5831E-01  0.0000E+00
  7.019966E-02  1.2037E-01  8.3777E-02  2.0211E+00  5.0301E-01  1.1293E-04  1.9119E-05  8.8527E-06  1.1082E+02  1.8762E+01  8.6873E+00  9.8132E-01  0.0000E+00
  7.040133E-02  1.5871E-02  4.3038E-02  1.4486E+00  3.2982E-01  1.3410E-04  2.9986E-05  1.2440E-05  1.3369E+02  2.9896E+01  1.2402E+01  9.9699E-01  0.0000E+00
  7.060500E-02  2.3044E-02  2.9009E-02  1.1893E+00  2.9880E-01  1.5738E-04  3.8986E-05  1.5289E-05  1.5744E+02  3.9001E+01  1.5295E+01  1.0004E+00  0.0000E+00
  7.081072E-02  2.0273E-02  2.4144E-02  1.0850E+00  2.7915E-01  1.8299E-04  4.6276E-05  1.7821E-05  1.8335E+02  4.6366E+01  1.7855E+01  1.0020E+00  0.0000E+00
  7.101849E-02  2.1660E-02  2.1455E-02  1.0228E+00  2.6587E-01  2.1117E-04  5.2533E-05  2.0125E-05  2.1167E+02  5.2658E+01  2.0173E+01  1.0024E+00  0.0000E+00
  7.122834E-02  2.1534E-02  1.9547E-02  9.7626E-01  2.5736E-01  2.4203E-04  5.8073E-05  2.2226E-05  2.4268E+02  5.8229E+01  2.2286E+01  1.0027E+00  0.0000E+00
  7.144029E-02  2.1822E-02  1.8047E-02  9.3803E-01  2.5180E-01  2.6950E-04  6.3148E-05  2.4198E-05  2.7025E+02  6.3322E+01  2.4265E+01  1.0028E+00  0.0000E+00
  7.165435E-02  2.1938E-02  1.6836E-02  9.0603E-01  2.4791E-01  2.9305E-04  6.7834E-05  2.6023E-05  2.9388E+02  6.8026E+01  2.6096E+01  1.0028E+00  0.0000E+00
  7.187056E-02  2.2070E-02  1.5834E-02  8.7866E-01  2.4537E-01  3.1152E-04  7.2246E-05  2.7758E-05  3.1241E+02  7.2453E+01  2.7838E+01  1.0029E+00  0.0000E+00
  7.208893E-02  2.2161E-02  1.4989E-02  8.5488E-01  2.4370E-01  3.3634E-04  7.6407E-05  2.9394E-05  3.3731E+02  7.6628E+01  2.9479E+01  1.0029E+00  0.0000E+00
  7.230949E-02  2.2239E-02  1.4263E-02  8.3393E-01  2.4252E-01  3.5285E-04  8.0391E-05  3.0975E-05  3.5388E+02  8.0625E+01  3.1066E+01  1.0029E+00  0.0000E+00
  7.253224E-02  2.2302E-02  1.3632E-02  8.1525E-01  2.4158E-01  3.7652E-04  8.4177E-05  3.2466E-05  3.7762E+02  8.4423E+01  3.2561E+01  1.0029E+00  0.0000E+00
  7.275723E-02  2.2358E-02  1.3075E-02  7.9844E-01  2.4090E-01  3.9394E-04  8.7859E-05  3.3944E-05  3.9509E+02  8.8116E+01  3.4044E+01  1.0029E+00  0.0000E+00
  7.298447E-02  2.2414E-02  1.2580E-02  7.8319E-01  2.4047E-01  4.1338E-04  9.1391E-05  3.5354E-05  4.1459E+02  9.1658E+01  3.5457E+01  1.0029E+00  0.0000E+00
  7.321398E-02  2.2464E-02  1.2137E-02  7.6926E-01  2.4029E-01  4.3351E-04  9.4806E-05  3.6717E-05  4.3477E+02  9.5082E+01  3.6824E+01  1.0029E+00  0.0000E+00
  7.344578E-02  2.2513E-02  1.1736E-02  7.5645E-01  2.4026E-01  4.4794E-04  9.8148E-05  3.8070E-05  4.4924E+02  9.8433E+01  3.8181E+01  1.0029E+00  0.0000E+00
  7.367990E-02  2.2560E-02  1.1372E-02  7.4461E-01  2.4030E-01  4.6920E-04  1.0138E-04  3.9374E-05  4.7056E+02  1.0168E+02  3.9488E+01  1.0029E+00  0.0000E+00
  7.391637E-02  2.2597E-02  1.1039E-02  7.3363E-01  2.4038E-01  4.8755E-04  1.0453E-04  4.0636E-05  4.8895E+02  1.0483E+02  4.0753E+01  1.0029E+00  0.0000E+00
  7.415520E-02  2.2626E-02  1.0732E-02  7.2337E-01  2.4046E-01  5.0166E-04  1.0764E-04  4.1907E-05  5.0310E+02  1.0795E+02  4.2027E+01  1.0029E+00  0.0000E+00
  7.439641E-02  2.2652E-02  1.0448E-02  7.1375E-01  2.4059E-01  5.2123E-04  1.1067E-04  4.3139E-05  5.2272E+02  1.1098E+02  4.3263E+01  1.0029E+00  0.0000E+00
  7.464004E-02  2.2675E-02  1.0185E-02  7.0469E-01  2.4077E-01  5.4000E-04  1.1363E-04  4.4339E-05  5.4153E+02  1.1395E+02  4.4465E+01  1.0028E+00  0.0000E+00
  7.488611E-02  2.2693E-02  9.9397E-03  6.9615E-01  2.4104E-01  5.5514E-04  1.1654E-04  4.5524E-05  5.5671E+02  1.1687E+02  4.5653E+01  1.0028E+00  0.0000E+00
  7.513463E-02  2.2705E-02  9.7101E-03  6.8807E-01  2.4137E-01  5.6947E-04  1.1941E-04  4.6708E-05  5.7107E+02  1.1975E+02  4.6840E+01  1.0028E+00  0.0000E+00
  7.538564E-02  2.2715E-02  9.4947E-03  6.8039E-01  2.4177E-01  5.9006E-04  1.2224E-04  4.7867E-05  5.9172E+02  1.2258E+02  4.8001E+01  1.0028E+00  0.0000E+00
  7.563916E-02  2.2724E-02  9.2920E-03  6.7309E-01  2.4221E-01  6.0725E-04  1.2501E-04  4.9001E-05  6.0895E+02  1.2536E+02  4.9138E+01  1.0028E+00  0.0000E+00
  7.589522E-02  2.2731E-02  9.1010E-03  6.6614E-01  2.4269E-01  6.2170E-04  1.2774E-04  5.0118E-05  6.2344E+02  1.2809E+02  5.0258E+01  1.0028E+00  0.0000E+00
  7.615383E-02  2.2736E-02  8.9205E-03  6.5950E-01  2.4321E-01  6.3571E-04  1.3045E-04  5.1248E-05  6.3748E+02  1.3082E+02  5.1391E+01  1.0028E+00  0.0000E+00
  7.641504E-02  2.2739E-02  8.7497E-03  6.5315E-01  2.4378E-01  6.5577E-04  1.3313E-04  5.2358E-05  6.5759E+02  1.3350E+02  5.2503E+01  1.0028E+00  0.0000E+00
  7.667885E-02  2.2741E-02  8.5875E-03  6.4707E-01  2.4440E-01  6.7308E-04  1.3576E-04  5.3450E-05  6.7494E+02  1.3614E+02  5.3598E+01  1.0028E+00  0.0000E+00
  7.694531E-02  2.2743E-02  8.4335E-03  6.4124E-01  2.4506E-01  6.8810E-04  1.3836E-04  5.4524E-05  6.9000E+02  1.3874E+02  5.4675E+01  1.0028E+00  0.0000E+00
  7.721442E-02  2.2745E-02  8.2869E-03  6.3565E-01  2.4579E-01  7.0118E-04  1.4094E-04  5.5599E-05  7.0311E+02  1.4132E+02  5.5752E+01  1.0028E+00  0.0000E+00
  7.748623E-02  2.2745E-02  8.1472E-03  6.3027E-01  2.4656E-01  7.1889E-04  1.4350E-04  5.6677E-05  7.2086E+02  1.4389E+02  5.6833E+01  1.0027E+00  0.0000E+00
  7.776076E-02  2.2744E-02  8.0139E-03  6.2509E-01  2.4738E-01  7.3738E-04  1.4603E-04  5.7741E-05  7.3939E+02  1.4643E+02  5.7900E+01  1.0027E+00  0.0000E+00
  7.803803E-02  2.2741E-02  7.8864E-03  6.2010E-01  2.4826E-01  7.5374E-04  1.4853E-04  5.8793E-05  7.5580E+02  1.4894E+02  5.8953E+01  1.0027E+00  0.0000E+00
  7.831808E-02  2.2738E-02  7.7644E-03  6.1528E-01  2.4919E-01  7.6828E-04  1.5100E-04  5.9831E-05  7.7037E+02  1.5142E+02  5.9995E+01  1.0027E+00  0.0000E+00
  7.860092E-02  2.2736E-02  7.6474E-03  6.1063E-01  2.5018E-01  7.8124E-04  1.5345E-04  6.0863E-05  7.8337E+02  1.5387E+02  6.1029E+01  1.0027E+00  0.0000E+00
  7.888659E-02  2.2734E-02  7.5351E-03  6.0613E-01  2.5124E-01  7.9849E-04  1.5591E-04  6.1911E-05  8.0066E+02  1.5633E+02  6.2080E+01  1.0027E+00  0.0000E+00
  7.917512E-02  2.2732E-02  7.4275E-03  6.0179E-01  2.5234E-01  8.1697E-04  1.5833E-04  6.2949E-05  8.1919E+02  1.5876E+02  6.3120E+01  1.0027E+00  0.0000E+00
  7.946654E-02  2.2730E-02  7.3242E-03  5.9759E-01  2.5352E-01  8.3366E-04  1.6074E-04  6.3978E-05  8.3592E+02  1.6117E+02  6.4151E+01  1.0027E+00  0.0000E+00
  7.976087E-02  2.2728E-02  7.2249E-03  5.9352E-01  2.5475E-01  8.4874E-04  1.6311E-04  6.4996E-05  8.5105E+02  1.6356E+02  6.5173E+01  1.0027E+00  0.0000E+00
  8.005814E-02  2.2726E-02  7.1295E-03  5.8959E-01  2.5605E-01  8.6242E-04  1.6547E-04  6.6006E-05  8.6475E+02  1.6592E+02  6.6185E+01  1.0027E+00  0.0000E+00
  8.035839E-02  2.2724E-02  7.0376E-03  5.8578E-01  2.5740E-01  8.7549E-04  1.6781E-04  6.7016E-05  8.7786E+02  1.6827E+02  6.7198E+01  1.0027E+00  0.0000E+00
  8.066164E-02  2.2723E-02  6.9491E-03  5.8208E-01  2.5882E-01  8.9484E-04  1.7016E-04  6.8041E-05  8.9726E+02  1.7062E+02  6.8224E+01  1.0027E+00  0.0000E+00
  8.096792E-02  2.2721E-02  6.8639E-03  5.7850E-01  2.6030E-01  9.1257E-04  1.7248E-04  6.9058E-05  9.1503E+02  1.7295E+02  6.9244E+01  1.0027E+00  0.0000E+00
  8.127726E-02  2.2719E-02  6.7816E-03  5.7502E-01  2.6186E-01  9.2885E-04  1.7479E-04  7.0069E-05  9.3135E+02  1.7526E+02  7.0258E+01  1.0027E+00  0.0000E+00
  8.158970E-02  2.2719E-02  6.7023E-03  5.7165E-01  2.6347E-01  9.4383E-04  1.7708E-04  7.1073E-05  9.4637E+02  1.7755E+02  7.1265E+01  1.0027E+00  0.0000E+00
  8.190526E-02  2.2717E-02  6.6259E-03  5.6838E-01  2.6517E-01  9.5762E-04  1.7935E-04  7.2071E-05  9.6020E+02  1.7983E+02  7.2266E+01  1.0027E+00  0.0000E+00
  8.222398E-02  2.2716E-02  6.5521E-03  5.6521E-01  2.6694E-01  9.7033E-04  1.8160E-04  7.3063E-05  9.7294E+02  1.8209E+02  7.3260E+01  1.0027E+00  0.0000E+00
  8.254588E-02  2.2715E-02  6.4808E-03  5.6213E-01  2.6879E-01  9.8925E-04  1.8385E-04  7.4073E-05  9.9192E+02  1.8435E+02  7.4272E+01  1.0027E+00  0.0000E+00
  8.287100E-02  2.2713E-02  6.4120E-03  5.5913E-01  2.7075E-01  1.0073E-03  1.8610E-04  7.5083E-05  1.0100E+03  1.8660E+02  7.5285E+01  1.0027E+00  0.0000E+00
  8.319938E-02  2.2712E-02  6.3455E-03  5.5623E-01  2.7273E-01  1.0241E-03  1.8833E-04  7.6090E-05  1.0269E+03  1.8884E+02  7.6294E+01  1.0027E+00  0.0000E+00
  8.353104E-02  2.2711E-02  6.2812E-03  5.5340E-01  2.7491E-01  1.0397E-03  1.9054E-04  7.7092E-05  1.0425E+03  1.9106E+02  7.7299E+01  1.0027E+00  0.0000E+00
  8.386601E-02  2.2710E-02  6.2191E-03  5.5066E-01  2.7717E-01  1.0542E-03  1.9274E-04  7.8090E-05  1.0571E+03  1.9326E+02  7.8300E+01  1.0027E+00  0.0000E+00
  8.420434E-02  2.2709E-02  6.1591E-03  5.4800E-01  2.7950E-01  1.0678E-03  1.9493E-04  7.9085E-05  1.0706E+03  1.9545E+02  7.9297E+01  1.0027E+00  0.0000E+00
  8.454604E-02  2.2709E-02  6.1012E-03  5.4541E-01  2.8192E-01  1.0817E-03  1.9709E-04  8.0076E-05  1.0846E+03  1.9762E+02  8.0291E+01  1.0027E+00  0.0000E+00
  8.489117E-02  2.2709E-02  6.0452E-03  5.4291E-01  2.8445E-01  1.1008E-03  1.9927E-04  8.1083E-05  1.1038E+03  1.9980E+02  8.1300E+01  1.0027E+00  0.0000E+00
  8.523975E-02  2.2709E-02  5.9911E-03  5.4047E-01  2.8710E-01  1.1188E-03  2.0143E-04  8.2096E-05  1.1218E+03  2.0197E+02  8.2316E+01  1.0027E+00  0.0000E+00
  8.559181E-02  2.2710E-02  5.9390E-03  5.3811E-01  2.8988E-01  1.1356E-03  2.0358E-04  8.3107E-05  1.1386E+03  2.0413E+02  8.3330E+01  1.0027E+00  0.0000E+00
  8.594739E-02  2.2710E-02  5.8886E-03  5.3583E-01  2.9279E-01  1.1514E-03  2.0572E-04  8.4116E-05  1.1545E+03  2.0627E+02  8.4341E+01  1.0027E+00  0.0000E+00
  8.630653E-02  2.2711E-02  5.8400E-03  5.3361E-01  2.9585E-01  1.1663E-03  2.0784E-04  8.5124E-05  1.1694E+03  2.0840E+02  8.5351E+01  1.0027E+00  0.0000E+00
  8.666926E-02  2.2712E-02  5.7931E-03  5.3146E-01  2.9905E-01  1.1802E-03  2.0995E-04  8.6130E-05  1.1834E+03  2.1051E+02  8.6360E+01  1.0027E+00  0.0000E+00
  8.703561E-02  2.2715E-02  5.7479E-03  5.2939E-01  3.0243E-01  1.1934E-03  2.1205E-04  8.7135E-05  1.1966E+03  2.1261E+02  8.7368E+01  1.0027E+00  0.0000E+00
  8.740564E-02  2.2719E-02  5.7045E-03  5.2738E-01  3.0597E-01  1.2115E-03  2.1412E-04  8.8136E-05  1.2147E+03  2.1469E+02  8.8371E+01  1.0027E+00  0.0000E+00
  8.777936E-02  2.2723E-02  5.6628E-03  5.2545E-01  3.0970E-01  1.2299E-03  2.1621E-04  8.9165E-05  1.2332E+03  2.1679E+02  8.9402E+01  1.0027E+00  0.0000E+00
  8.815681E-02  2.2728E-02  5.6228E-03  5.2359E-01  3.1362E-01  1.2474E-03  2.1829E-04  9.0194E-05  1.2507E+03  2.1887E+02  9.0434E+01  1.0027E+00  0.0000E+00
  8.853805E-02  2.2733E-02  5.5844E-03  5.2180E-01  3.1775E-01  1.2639E-03  2.2035E-04  9.1224E-05  1.2673E+03  2.2093E+02  9.1465E+01  1.0027E+00  0.0000E+00
  8.892309E-02  2.2737E-02  5.5476E-03  5.2008E-01  3.2210E-01  1.2795E-03  2.2240E-04  9.2254E-05  1.2829E+03  2.2298E+02  9.2498E+01  1.0026E+00  0.0000E+00
  8.931199E-02  2.2742E-02  5.5124E-03  5.1843E-01  3.2669E-01  1.2943E-03  2.2443E-04  9.3284E-05  1.2977E+03  2.2502E+02  9.3531E+01  1.0026E+00  0.0000E+00
  8.970477E-02  2.2748E-02  5.4787E-03  5.1684E-01  3.3155E-01  1.3083E-03  2.2644E-04  9.4316E-05  1.3118E+03  2.2704E+02  9.4565E+01  1.0026E+00  0.0000E+00
  9.010148E-02  2.2755E-02  5.4464E-03  5.1532E-01  3.3671E-01  1.3216E-03  2.2844E-04  9.5350E-05  1.3251E+03  2.2905E+02  9.5601E+01  1.0026E+00  0.0000E+00
  9.050216E-02  2.2765E-02  5.4157E-03  5.1386E-01  3.4220E-01  1.3390E-03  2.3042E-04  9.6382E-05  1.3425E+03  2.3103E+02  9.6635E+01  1.0026E+00  0.0000E+00
  9.090685E-02  2.2780E-02  5.3865E-03  5.1248E-01  3.4806E-01  1.3576E-03  2.3240E-04  9.7431E-05  1.3611E+03  2.3301E+02  9.7685E+01  1.0026E+00  0.0000E+00
  9.131558E-02  2.2800E-02  5.3592E-03  5.1118E-01  3.5431E-01  1.3753E-03  2.3437E-04  9.8497E-05  1.3788E+03  2.3498E+02  9.8753E+01  1.0026E+00  0.0000E+00
  9.172840E-02  2.2823E-02  5.3337E-03  5.0996E-01  3.6099E-01  1.3921E-03  2.3633E-04  9.9568E-05  1.3957E+03  2.3694E+02  9.9825E+01  1.0026E+00  0.0000E+00
  9.214535E-02  2.2850E-02  5.3100E-03  5.0882E-01  3.6811E-01  1.4082E-03  2.3827E-04  1.0064E-04  1.4119E+03  2.3888E+02  1.0090E+02  1.0026E+00  0.0000E+00
  9.256647E-02  2.2883E-02  5.2880E-03  5.0777E-01  3.7570E-01  1.4236E-03  2.4018E-04  1.0173E-04  1.4273E+03  2.4080E+02  1.0198E+02  1.0025E+00  0.0000E+00
  9.299180E-02  2.2922E-02  5.2680E-03  5.0681E-01  3.8379E-01  1.4383E-03  2.4209E-04  1.0281E-04  1.4420E+03  2.4270E+02  1.0307E+02  1.0025E+00  0.0000E+00
  9.342138E-02  2.2968E-02  5.2500E-03  5.0594E-01  3.9239E-01  1.4523E-03  2.4397E-04  1.0391E-04  1.4560E+03  2.4458E+02  1.0417E+02  1.0025E+00  0.0000E+00
  9.385526E-02  2.3015E-02  5.2339E-03  5.0517E-01  4.0149E-01  1.4657E-03  2.4583E-04  1.0500E-04  1.4694E+03  2.4644E+02  1.0527E+02  1.0025E+00  0.0000E+00
  9.429348E-02  2.3061E-02  5.2196E-03  5.0447E-01  4.1111E-01  1.4840E-03  2.4767E-04  1.0610E-04  1.4876E+03  2.4828E+02  1.0636E+02  1.0025E+00  0.0000E+00
  9.473607E-02  2.3107E-02  5.2066E-03  5.0384E-01  4.2128E-01  1.5025E-03  2.4950E-04  1.0721E-04  1.5061E+03  2.5010E+02  1.0747E+02  1.0024E+00  0.0000E+00
  9.518310E-02  2.3156E-02  5.1950E-03  5.0328E-01  4.3214E-01  1.5202E-03  2.5132E-04  1.0835E-04  1.5238E+03  2.5192E+02  1.0861E+02  1.0024E+00  0.0000E+00
  9.563459E-02  2.3213E-02  5.1849E-03  5.0279E-01  4.4388E-01  1.5372E-03  2.5313E-04  1.0950E-04  1.5408E+03  2.5373E+02  1.0976E+02  1.0024E+00  0.0000E+00
  9.609061E-02  2.3281E-02  5.1767E-03  5.0239E-01  4.5660E-01  1.5536E-03  2.5491E-04  1.1066E-04  1.5572E+03  2.5551E+02  1.1092E+02  1.0023E+00  0.0000E+00
  9.655118E-02  2.3364E-02  5.1706E-03  5.0210E-01  4.7019E-01  1.5694E-03  2.5668E-04  1.1183E-04  1.5730E+03  2.5726E+02  1.1209E+02  1.0023E+00  0.0000E+00
  9.701635E-02  2.3462E-02  5.1672E-03  5.0193E-01  4.8438E-01  1.5847E-03  2.5842E-04  1.1302E-04  1.5883E+03  2.5900E+02  1.1327E+02  1.0022E+00  0.0000E+00
  9.748618E-02  2.3573E-02  5.1664E-03  5.0190E-01  4.9891E-01  1.5995E-03  2.6014E-04  1.1422E-04  1.6030E+03  2.6071E+02  1.1447E+02  1.0022E+00  0.0000E+00
  9.796071E-02  2.3699E-02  5.1684E-03  5.0199E-01  5.1363E-01  1.6138E-03  2.6183E-04  1.1544E-04  1.6173E+03  2.6240E+02  1.1568E+02  1.0022E+00  0.0000E+00
  9.843998E-02  2.3839E-02  5.1734E-03  5.0224E-01  5.2853E-01  1.6292E-03  2.6351E-04  1.1667E-04  1.6326E+03  2.6406E+02  1.1691E+02  1.0021E+00  0.0000E+00
  9.892404E-02  2.3995E-02  5.1815E-03  5.0263E-01  5.4376E-01  1.6492E-03  2.6516E-04  1.1791E-04  1.6526E+03  2.6570E+02  1.1815E+02  1.0020E+00  0.0000E+00
  9.941295E-02  2.4167E-02  5.1930E-03  5.0319E-01  5.5966E-01  1.6687E-03  2.6681E-04  1.1918E-04  1.6720E+03  2.6734E+02  1.1942E+02  1.0020E+00  0.0000E+00
  9.990674E-02  2.4355E-02  5.2081E-03  5.0392E-01  5.7687E-01  1.6876E-03  2.6847E-04  1.2050E-04  1.6909E+03  2.6898E+02  1.2073E+02  1.0019E+00  0.0000E+00
  1.004055E-01  2.4554E-02  5.2266E-03  5.0481E-01  5.9448E-01  1.7060E-03  2.7013E-04  1.2183E-04  1.7091E+03  2.7062E+02  1.2206E+02  1.0018E+00  0.0000E+00
  1.009092E-01  2.4757E-02  5.2480E-03  5.0584E-01  6.1128E-01  1.7237E-03  2.7178E-04  1.2319E-04  1.7268E+03  2.7227E+02  1.2341E+02  1.0018E+00  0.0000E+00
  1.014179E-01  2.4959E-02  5.2716E-03  5.0698E-01  6.2625E-01  1.7408E-03  2.7345E-04  1.2456E-04  1.7438E+03  2.7392E+02  1.2477E+02  1.0017E+00  0.0000E+00
  1.019318E-01  2.5151E-02  5.2966E-03  5.0818E-01  6.3960E-01  1.7573E-03  2.7512E-04  1.2594E-04  1.7602E+03  2.7558E+02  1.2615E+02  1.0017E+00  0.0000E+00
  1.024508E-01  2.5330E-02  5.3224E-03  5.0942E-01  6.5086E-01  1.7730E-03  2.7682E-04  1.2734E-04  1.7758E+03  2.7726E+02  1.2755E+02  1.0016E+00  0.0000E+00
  1.029749E-01  2.5492E-02  5.3485E-03  5.1066E-01  6.6153E-01  1.7880E-03  2.7854E-04  1.2875E-04  1.7908E+03  2.7897E+02  1.2895E+02  1.0015E+00  0.0000E+00
  1.035044E-01  2.5636E-02  5.3743E-03  5.1189E-01  6.7186E-01  1.8052E-03  2.8028E-04  1.3017E-04  1.8079E+03  2.8070E+02  1.3037E+02  1.0015E+00  0.0000E+00
  1.040391E-01  2.5761E-02  5.3996E-03  5.1310E-01  6.8192E-01  1.8257E-03  2.8205E-04  1.3160E-04  1.8283E+03  2.8246E+02  1.3179E+02  1.0014E+00  0.0000E+00
  1.045791E-01  2.5868E-02  5.4243E-03  5.1427E-01  6.9183E-01  1.8454E-03  2.8386E-04  1.3305E-04  1.8480E+03  2.8426E+02  1.3323E+02  1.0014E+00  0.0000E+00
  1.051246E-01  2.5958E-02  5.4481E-03  5.1540E-01  7.0175E-01  1.8645E-03  2.8574E-04  1.3453E-04  1.8670E+03  2.8613E+02  1.3471E+02  1.0014E+00  0.0000E+00
  1.056755E-01  2.6035E-02  5.4712E-03  5.1649E-01  7.1197E-01  1.8829E-03  2.8766E-04  1.3603E-04  1.8854E+03  2.8804E+02  1.3621E+02  1.0013E+00  0.0000E+00
  1.062319E-01  2.6099E-02  5.4936E-03  5.1754E-01  7.2283E-01  1.9006E-03  2.8962E-04  1.3755E-04  1.9031E+03  2.8999E+02  1.3773E+02  1.0013E+00  0.0000E+00
  1.067939E-01  2.6151E-02  5.5149E-03  5.1855E-01  7.3483E-01  1.9178E-03  2.9162E-04  1.3908E-04  1.9203E+03  2.9200E+02  1.3926E+02  1.0013E+00  0.0000E+00
  1.073615E-01  2.6187E-02  5.5344E-03  5.1946E-01  7.4415E-01  1.9344E-03  2.9367E-04  1.4062E-04  1.9368E+03  2.9405E+02  1.4080E+02  1.0013E+00  0.0000E+00
  1.079348E-01  2.6203E-02  5.5516E-03  5.2027E-01  7.5103E-01  1.9503E-03  2.9577E-04  1.4218E-04  1.9528E+03  2.9614E+02  1.4236E+02  1.0013E+00  0.0000E+00
  1.085138E-01  2.6202E-02  5.5660E-03  5.2094E-01  7.5663E-01  1.9657E-03  2.9791E-04  1.4374E-04  1.9681E+03  2.9829E+02  1.4392E+02  1.0013E+00  0.0000E+00
  1.090986E-01  2.6186E-02  5.5776E-03  5.2149E-01  7.6148E-01  1.9804E-03  3.0010E-04  1.4532E-04  1.9829E+03  3.0048E+02  1.4550E+02  1.0013E+00  0.0000E+00
  1.096892E-01  2.6159E-02  5.5867E-03  5.2191E-01  7.6583E-01  1.9988E-03  3.0232E-04  1.4690E-04  2.0013E+03  3.0271E+02  1.4709E+02  1.0013E+00  0.0000E+00
  1.102858E-01  2.6123E-02  5.5936E-03  5.2223E-01  7.6982E-01  2.0194E-03  3.0459E-04  1.4850E-04  2.0219E+03  3.0498E+02  1.4869E+02  1.0013E+00  0.0000E+00
  1.108883E-01  2.6082E-02  5.5987E-03  5.2247E-01  7.7352E-01  2.0394E-03  3.0690E-04  1.5012E-04  2.0421E+03  3.0730E+02  1.5031E+02  1.0013E+00  0.0000E+00
  1.114969E-01  2.6036E-02  5.6021E-03  5.2263E-01  7.7699E-01  2.0590E-03  3.0928E-04  1.5177E-04  2.0617E+03  3.0968E+02  1.5197E+02  1.0013E+00  0.0000E+00
  1.121115E-01  2.5988E-02  5.6042E-03  5.2273E-01  7.8026E-01  2.0781E-03  3.1170E-04  1.5345E-04  2.0809E+03  3.1211E+02  1.5365E+02  1.0013E+00  0.0000E+00
  1.127323E-01  2.5937E-02  5.6051E-03  5.2277E-01  7.8336E-01  2.0968E-03  3.1415E-04  1.5513E-04  2.0996E+03  3.1457E+02  1.5534E+02  1.0013E+00  0.0000E+00
  1.133593E-01  2.5885E-02  5.6050E-03  5.2277E-01  7.8631E-01  2.1149E-03  3.1664E-04  1.5684E-04  2.1178E+03  3.1707E+02  1.5705E+02  1.0014E+00  0.0000E+00
  1.139925E-01  2.5832E-02  5.6039E-03  5.2272E-01  7.8914E-01  2.1326E-03  3.1916E-04  1.5856E-04  2.1355E+03  3.1960E+02  1.5878E+02  1.0014E+00  0.0000E+00
  1.146321E-01  2.5779E-02  5.6021E-03  5.2263E-01  7.9185E-01  2.1498E-03  3.2171E-04  1.6029E-04  2.1528E+03  3.2216E+02  1.6051E+02  1.0014E+00  0.0000E+00
  1.152781E-01  2.5727E-02  5.5995E-03  5.2251E-01  7.9447E-01  2.1665E-03  3.2429E-04  1.6204E-04  2.1696E+03  3.2475E+02  1.6227E+02  1.0014E+00  0.0000E+00
  1.159305E-01  2.5675E-02  5.5964E-03  5.2237E-01  7.9698E-01  2.1826E-03  3.2690E-04  1.6380E-04  2.1858E+03  3.2737E+02  1.6404E+02  1.0015E+00  0.0000E+00
  1.165895E-01  2.5624E-02  5.5928E-03  5.2220E-01  7.9942E-01  2.2000E-03  3.2953E-04  1.6557E-04  2.2033E+03  3.3002E+02  1.6582E+02  1.0015E+00  0.0000E+00
  1.172551E-01  2.5575E-02  5.5888E-03  5.2201E-01  8.0177E-01  2.2230E-03  3.3218E-04  1.6736E-04  2.2263E+03  3.3268E+02  1.6761E+02  1.0015E+00  0.0000E+00
  1.179273E-01  2.5526E-02  5.5844E-03  5.2180E-01  8.0404E-01  2.2454E-03  3.3487E-04  1.6917E-04  2.2488E+03  3.3538E+02  1.6943E+02  1.0015E+00  0.0000E+00
  1.186062E-01  2.5478E-02  5.5796E-03  5.2158E-01  8.0624E-01  2.2673E-03  3.3761E-04  1.7102E-04  2.2708E+03  3.3814E+02  1.7129E+02  1.0015E+00  0.0000E+00
  1.192920E-01  2.5432E-02  5.5746E-03  5.2135E-01  8.0837E-01  2.2886E-03  3.4038E-04  1.7289E-04  2.2922E+03  3.4092E+02  1.7316E+02  1.0016E+00  0.0000E+00
  1.199845E-01  2.5386E-02  5.5694E-03  5.2110E-01  8.1043E-01  2.3094E-03  3.4317E-04  1.7478E-04  2.3131E+03  3.4372E+02  1.7505E+02  1.0016E+00  0.0000E+00
  1.206840E-01  2.5341E-02  5.5639E-03  5.2085E-01  8.1243E-01  2.3296E-03  3.4599E-04  1.7668E-04  2.3334E+03  3.4655E+02  1.7696E+02  1.0016E+00  0.0000E+00
  1.213906E-01  2.5297E-02  5.5583E-03  5.2058E-01  8.1437E-01  2.3493E-03  3.4883E-04  1.7859E-04  2.3531E+03  3.4940E+02  1.7888E+02  1.0016E+00  0.0000E+00
  1.221041E-01  2.5254E-02  5.5525E-03  5.2031E-01  8.1626E-01  2.3683E-03  3.5169E-04  1.8052E-04  2.3723E+03  3.5228E+02  1.8082E+02  1.0017E+00  0.0000E+00
  1.228248E-01  2.5212E-02  5.5465E-03  5.2003E-01  8.1809E-01  2.3868E-03  3.5458E-04  1.8246E-04  2.3908E+03  3.5518E+02  1.8277E+02  1.0017E+00  0.0000E+00
  1.235527E-01  2.5171E-02  5.5404E-03  5.1974E-01  8.1987E-01  2.4046E-03  3.5749E-04  1.8442E-04  2.4088E+03  3.5810E+02  1.8474E+02  1.0017E+00  0.0000E+00
  1.242879E-01  2.5130E-02  5.5341E-03  5.1945E-01  8.2159E-01  2.4218E-03  3.6042E-04  1.8639E-04  2.4260E+03  3.6105E+02  1.8672E+02  1.0017E+00  0.0000E+00
  1.250305E-01  2.5091E-02  5.5277E-03  5.1915E-01  8.2328E-01  2.4461E-03  3.6336E-04  1.8837E-04  2.4505E+03  3.6400E+02  1.8870E+02  1.0018E+00  0.0000E+00
  1.257804E-01  2.5052E-02  5.5212E-03  5.1885E-01  8.2491E-01  2.4711E-03  3.6634E-04  1.9038E-04  2.4755E+03  3.6700E+02  1.9073E+02  1.0018E+00  0.0000E+00
  1.265379E-01  2.5013E-02  5.5147E-03  5.1854E-01  8.2650E-01  2.4954E-03  3.6938E-04  1.9244E-04  2.4999E+03  3.7005E+02  1.9279E+02  1.0018E+00  0.0000E+00
  1.273030E-01  2.4975E-02  5.5080E-03  5.1822E-01  8.2805E-01  2.5190E-03  3.7243E-04  1.9451E-04  2.5236E+03  3.7312E+02  1.9487E+02  1.0018E+00  0.0000E+00
  1.280757E-01  2.4937E-02  5.5013E-03  5.1791E-01  8.2955E-01  2.5420E-03  3.7551E-04  1.9660E-04  2.5468E+03  3.7621E+02  1.9696E+02  1.0019E+00  0.0000E+00
  1.288561E-01  2.4900E-02  5.4944E-03  5.1758E-01  8.3101E-01  2.5644E-03  3.7862E-04  1.9870E-04  2.5692E+03  3.7933E+02  1.9907E+02  1.0019E+00  0.0000E+00
  1.296443E-01  2.4862E-02  5.4875E-03  5.1726E-01  8.3243E-01  2.5861E-03  3.8174E-04  2.0081E-04  2.5911E+03  3.8247E+02  2.0120E+02  1.0019E+00  0.0000E+00
  1.304404E-01  2.4825E-02  5.4805E-03  5.1693E-01  8.3381E-01  2.6072E-03  3.8489E-04  2.0295E-04  2.6122E+03  3.8564E+02  2.0334E+02  1.0019E+00  0.0000E+00
  1.312445E-01  2.4789E-02  5.4733E-03  5.1659E-01  8.3515E-01  2.6275E-03  3.8806E-04  2.0509E-04  2.6326E+03  3.8882E+02  2.0550E+02  1.0020E+00  0.0000E+00
  1.320566E-01  2.4752E-02  5.4661E-03  5.1625E-01  8.3646E-01  2.6471E-03  3.9126E-04  2.0725E-04  2.6523E+03  3.9203E+02  2.0767E+02  1.0020E+00  0.0000E+00
  1.328768E-01  2.4716E-02  5.4588E-03  5.1590E-01  8.3773E-01  2.6659E-03  3.9447E-04  2.0943E-04  2.6713E+03  3.9527E+02  2.0985E+02  1.0020E+00  0.0000E+00
  1.337052E-01  2.4680E-02  5.4514E-03  5.1555E-01  8.3897E-01  2.6884E-03  3.9770E-04  2.1161E-04  2.6939E+03  3.9851E+02  2.1204E+02  1.0020E+00  0.0000E+00
  1.345420E-01  2.4643E-02  5.4438E-03  5.1520E-01  8.4017E-01  2.7161E-03  4.0099E-04  2.1384E-04  2.7217E+03  4.0181E+02  2.1428E+02  1.0021E+00  0.0000E+00
  1.353870E-01  2.4606E-02  5.4362E-03  5.1484E-01  8.4134E-01  2.7432E-03  4.0432E-04  2.1611E-04  2.7489E+03  4.0516E+02  2.1656E+02  1.0021E+00  0.0000E+00
  1.362406E-01  2.4569E-02  5.4285E-03  5.1447E-01  8.4248E-01  2.7695E-03  4.0767E-04  2.1839E-04  2.7754E+03  4.0853E+02  2.1885E+02  1.0021E+00  0.0000E+00
  1.371027E-01  2.4532E-02  5.4206E-03  5.1410E-01  8.4359E-01  2.7952E-03  4.1105E-04  2.2069E-04  2.8011E+03  4.1193E+02  2.2116E+02  1.0021E+00  0.0000E+00